ITEM: TIMESTEP
0
ITEM: NUMBER OF ATOMS
614
ITEM: BOX BOUNDS pp pp pp
-1.372862e+02 1.372862e+02
-1.372862e+02 1.372862e+02
-1.372862e+02 1.372862e+02
ITEM: ATOMS id type x y z vx vy vz transparency
0 C -1.223452 -0.244693 0.402950 -0.000632 0.004775 -0.000431 1.000000
1 C -1.107831 0.327629 1.822617 0.004539 -0.001322 0.000610 1.000000
2 C -2.112076 -1.496089 0.408277 0.009755 -0.000702 0.000725 1.000000
3 H -0.597071 1.281454 1.848156 -0.002349 0.011854 0.023735 1.000000
4 H -0.602541 -0.366358 2.490187 -0.026096 -0.026497 -0.013342 1.000000
5 H -2.100364 0.487510 2.222590 -0.007485 0.019307 0.004624 1.000000
6 H -1.669782 -2.292933 0.998926 0.006750 0.019452 -0.007596 1.000000
7 H -2.330948 -1.885873 -0.582330 -0.003819 0.033230 -0.013227 1.000000
8 H -3.070616 -1.254616 0.849736 0.015340 0.023076 0.020732 1.000000
9 C 0.176447 -0.548172 -0.188077 0.000981 -0.005395 -0.005213 1.000000
10 H -1.678186 0.515030 -0.230081 -0.008361 0.009219 0.008958 1.000000
11 C 1.097692 0.677729 -0.250042 -0.002218 -0.002535 0.001364 1.000000
12 O 1.795962 0.983047 0.810985 -0.001600 0.003283 0.002166 1.000000
13 H 1.684565 0.409564 1.554074 -0.011005 0.000774 -0.010470 1.000000
14 O 1.147448 1.303044 -1.253814 0.006585 0.001975 -0.003875 1.000000
15 N 0.048190 -0.963266 -1.631419 -0.001952 -0.002917 -0.003701 1.000000
16 H -0.104612 -0.128223 -2.187394 -0.008132 -0.004772 -0.013864 1.000000
17 H -0.704113 -1.616796 -1.778060 -0.027084 0.013837 0.036187 1.000000
18 H 0.644111 -1.373345 0.336694 -0.034883 -0.002518 -0.009336 1.000000
19 H 0.899241 -1.380700 -1.980028 -0.002623 0.007458 -0.025766 1.000000
20 H(g) 51.069010 30.111474 -76.759215 0.000119 -0.000894 0.003944 0.000000
21 H(g) 51.705562 30.078002 -75.865187 0.006323 0.000074 -0.000438 0.000000
22 H(g) -62.751114 -90.100642 30.655434 0.004638 -0.003491 -0.004169 0.000000
23 H(g) -62.134464 -89.881500 31.537094 -0.001467 0.001139 -0.001050 0.000000
24 H(g) 16.686554 65.238542 12.436674 0.001939 0.003252 0.001083 0.000000
25 H(g) 16.693236 65.937538 11.589937 -0.007480 0.001242 -0.000650 0.000000
26 H(g) -47.906603 -70.461294 -41.470817 0.006844 -0.000080 0.000312 0.000000
27 H(g) -47.369294 -69.717704 -40.867512 0.002175 0.004490 -0.001162 0.000000
28 H(g) 81.324203 10.881773 -68.670287 0.000579 0.005898 0.000041 0.000000
29 H(g) 81.850280 10.866505 -69.633933 -0.002465 0.000679 -0.001539 0.000000
30 H(g) -88.153414 76.993669 18.416078 -0.002698 0.004073 -0.001577 0.000000
31 H(g) -88.295774 76.385707 19.319250 -0.000168 -0.003276 -0.006125 0.000000
32 H(g) -97.625546 -1.629365 -62.793793 -0.002016 0.005453 -0.001671 0.000000
33 H(g) -98.335249 -0.948228 -63.281622 -0.002076 0.002454 -0.005770 0.000000
34 H(g) 1.178278 -59.968798 79.218123 -0.000382 -0.000007 -0.001333 0.000000
35 H(g) 0.694502 -59.713081 80.170055 -0.001202 -0.004380 -0.000575 0.000000
36 H(g) -61.669918 -2.488770 -26.840509 -0.002483 -0.002248 0.003007 0.000000
37 H(g) -62.102063 -2.060055 -25.926693 0.000505 0.007421 -0.000116 0.000000
38 H(g) 10.780757 8.971854 20.740330 0.005231 0.003934 0.001387 0.000000
39 H(g) 10.099793 9.820768 20.886055 -0.001568 -0.002000 0.004185 0.000000
40 H(g) -4.204271 112.789584 33.589387 0.004728 -0.005579 0.003677 0.000000
41 H(g) -4.738206 112.814906 34.548488 0.002670 0.001274 0.002350 0.000000
42 H(g) -46.339462 -43.627353 14.861994 -0.004895 -0.001503 -0.006293 0.000000
43 H(g) -46.756374 -44.076092 15.773269 0.002508 0.001140 -0.001605 0.000000
44 H(g) 46.330479 -89.005549 -49.367404 -0.003229 0.003931 0.003013 0.000000
45 H(g) 46.631536 -89.053134 -48.312556 -0.008688 -0.005988 0.004123 0.000000
46 H(g) 0.480830 103.110752 -59.033557 0.004182 0.000449 0.000818 0.000000
47 H(g) 1.575526 103.084989 -59.114676 0.004347 -0.001781 0.003751 0.000000
48 H(g) 23.389786 -34.432910 109.219656 -0.001598 -0.000021 -0.008247 0.000000
49 H(g) 24.349074 -34.965932 109.255114 -0.001949 0.000094 0.002973 0.000000
50 H(g) -40.503817 -38.201561 -28.994537 0.002106 0.007482 -0.000468 0.000000
51 H(g) -40.466765 -38.376600 -30.077862 -0.000859 0.002924 0.000167 0.000000
52 H(g) -25.642114 -94.415287 56.556514 -0.004275 -0.002992 0.001413 0.000000
53 H(g) -25.928994 -94.576150 55.508932 0.006740 -0.005832 -0.001167 0.000000
54 H(g) 11.316885 -38.033134 14.568364 -0.002325 -0.000230 -0.001344 0.000000
55 H(g) 11.692440 -37.749404 13.576366 0.003697 -0.002884 0.000177 0.000000
56 H(g) -56.405158 -17.201008 -13.784769 0.000791 -0.005243 -0.000226 0.000000
57 H(g) -56.939885 -18.159757 -13.806504 -0.003578 -0.002867 0.002464 0.000000
58 H(g) -16.874036 -118.463748 8.713532 0.007096 0.002781 0.003355 0.000000
59 H(g) -16.351834 -118.384978 7.750877 0.008260 0.000077 0.003765 0.000000
60 H(g) -74.800044 2.669866 -33.191617 0.000005 -0.000210 -0.002398 0.000000
61 H(g) -75.284865 1.938902 -32.531128 -0.000744 0.002189 -0.000293 0.000000
62 H(g) 25.598987 -69.972728 90.374484 0.003421 0.006166 -0.003902 0.000000
63 H(g) 24.671268 -69.495616 90.716982 -0.001373 -0.001982 -0.005539 0.000000
64 H(g) 66.005007 26.438174 61.574099 0.007142 0.000559 0.005307 0.000000
65 H(g) 65.924895 25.716822 62.398015 -0.010471 -0.002286 0.001104 0.000000
66 H(g) 41.512182 -34.531129 12.028583 0.000766 -0.000838 0.002204 0.000000
67 H(g) 41.973680 -34.571030 11.033078 -0.002872 0.000947 0.000447 0.000000
68 H(g) 5.150837 20.200104 8.294439 -0.003857 0.001085 0.003130 0.000000
69 H(g) 5.521567 20.059177 7.270573 -0.003311 0.006072 0.002641 0.000000
70 H(g) -26.465364 13.199320 -90.833993 0.009221 -0.007344 -0.001052 0.000000
71 H(g) -26.794498 13.262276 -91.879608 -0.000392 -0.005736 0.002070 0.000000
72 H(g) 16.989608 -95.636769 35.704850 0.000526 0.000499 -0.001926 0.000000
73 H(g) 15.942800 -95.880461 35.480326 0.001784 -0.004832 -0.002008 0.000000
74 H(g) -95.099149 -6.371813 56.613473 -0.005834 0.003127 -0.003416 0.000000
75 H(g) -95.314755 -6.759787 55.609185 -0.001226 -0.000754 -0.002906 0.000000
76 H(g) 20.731548 -75.733198 0.188865 -0.001969 0.003748 0.000482 0.000000
77 H(g) 19.645161 -75.666147 0.044397 -0.002627 -0.000251 0.003576 0.000000
78 H(g) -22.534837 64.493864 58.462489 -0.010975 -0.002175 -0.001881 0.000000
79 H(g) -23.221701 64.285856 59.293485 -0.002775 -0.005679 0.004019 0.000000
80 H(g) -30.012360 -100.236724 -26.070558 -0.003680 -0.001190 0.001522 0.000000
81 H(g) -29.119787 -100.875115 -26.033491 0.000174 0.004203 0.001604 0.000000
82 H(g) -93.394864 49.475358 -9.583261 -0.000654 0.007430 -0.000270 0.000000
83 H(g) -93.645097 48.957936 -10.518816 -0.004392 0.000378 0.004630 0.000000
84 H(g) 8.255388 -4.265712 -69.011421 -0.007396 -0.000777 -0.003761 0.000000
85 H(g) 7.828144 -5.222053 -68.682062 -0.007058 0.001294 0.002690 0.000000
86 H(g) -78.076244 -21.585838 42.430015 0.000361 0.001889 0.001911 0.000000
87 H(g) -77.864815 -21.313228 43.472409 -0.009164 -0.000835 0.004555 0.000000
88 H(g) 23.474030 78.014702 -10.720764 -0.000142 -0.005969 0.000351 0.000000
89 H(g) 24.143850 78.028812 -11.590676 0.002765 -0.001432 0.002663 0.000000
90 H(g) 62.593520 21.579049 -80.021371 -0.002550 -0.005257 -0.003013 0.000000
91 H(g) 62.440019 21.236936 -81.053360 -0.009255 -0.002894 -0.002799 0.000000
92 H(g) -22.339502 55.922839 78.245756 -0.002934 -0.000420 -0.001089 0.000000
93 H(g) -22.636127 55.899001 79.302662 -0.000882 -0.002557 -0.000561 0.000000
94 H(g) -65.023568 -97.552765 -20.152819 -0.004306 0.007270 -0.004898 0.000000
95 H(g) -65.607898 -98.146495 -19.437524 0.008873 0.002735 0.002103 0.000000
96 H(g) 29.322070 -71.901896 -62.890400 0.007829 -0.002128 0.002425 0.000000
97 H(g) 29.713472 -72.395412 -63.789761 -0.001997 0.000238 -0.003149 0.000000
98 H(g) 65.952857 91.646322 0.021574 0.002355 0.003099 -0.008563 0.000000
99 H(g) 66.155811 92.581086 -0.517529 -0.002224 0.004490 -0.007874 0.000000
100 H(g) -108.899126 -26.042218 -17.155342 -0.003877 0.002085 0.000134 0.000000
101 H(g) -109.625405 -25.388675 -16.654340 -0.001963 0.006690 -0.003098 0.000000
102 H(g) -25.637737 9.640790 -89.954849 0.000605 -0.000757 -0.003440 0.000000
103 H(g) -25.992370 10.576419 -90.406997 0.007373 0.003556 0.000176 0.000000
104 H(g) 11.387369 91.803235 -75.083403 -0.000009 0.001291 -0.002820 0.000000
105 H(g) 11.975393 91.374683 -74.261105 -0.002400 -0.000304 -0.001941 0.000000
106 H(g) 56.213640 32.185546 -88.708044 0.000268 -0.000977 -0.003189 0.000000
107 H(g) 56.147304 31.673456 -87.739041 0.000151 -0.004295 -0.004951 0.000000
108 H(g) 30.652951 65.666701 -23.828242 0.003314 0.007089 -0.000166 0.000000
109 H(g) 30.682979 65.700430 -24.925313 0.005667 0.002846 -0.000232 0.000000
110 H(g) 110.622891 0.956762 -43.213483 0.005041 -0.003465 0.001450 0.000000
111 H(g) 111.357690 1.764595 -43.327850 0.002913 -0.002447 -0.005030 0.000000
112 H(g) 8.876803 -40.855407 -106.809341 -0.005359 -0.001895 0.000257 0.000000
113 H(g) 9.160020 -40.473392 -105.819666 0.001214 0.002029 -0.003139 0.000000
114 H(g) -30.124230 -61.580248 29.117618 0.002166 0.002360 -0.000378 0.000000
115 H(g) -29.716198 -62.142190 29.968109 -0.001126 -0.002129 -0.001764 0.000000
116 H(g) 94.235814 24.497152 -20.155223 0.001918 0.002217 -0.000298 0.000000
117 H(g) 94.960814 23.768042 -19.770024 -0.001640 -0.002619 -0.002753 0.000000
118 H(g) -94.292126 47.908381 -16.926811 -0.002888 0.002379 -0.007700 0.000000
119 H(g) -93.585641 47.522120 -17.673326 -0.001124 -0.000909 -0.004329 0.000000
120 H(g) 15.102387 39.088630 -48.805765 0.003447 0.008139 -0.005530 0.000000
121 H(g) 15.904934 39.061712 -48.056902 -0.000049 -0.006616 -0.002314 0.000000
122 H(g) 33.047857 -4.820100 61.530952 0.000941 0.000285 0.003181 0.000000
123 H(g) 33.722196 -4.074461 61.089484 0.002762 -0.007339 -0.006913 0.000000
124 H(g) 10.370454 97.498689 61.607060 -0.005171 0.005693 0.003303 0.000000
125 H(g) 9.333441 97.801388 61.410638 -0.003342 0.009042 -0.001194 0.000000
126 H(g) 68.603175 -8.871636 -34.072629 -0.002420 0.007470 -0.004545 0.000000
127 H(g) 68.350464 -8.238029 -33.212233 -0.003294 -0.003967 0.003621 0.000000
128 H(g) 68.612770 91.999396 -16.431957 0.004636 0.002028 -0.004509 0.000000
129 H(g) 68.788210 91.425734 -15.512318 0.004031 -0.002985 -0.007521 0.000000
130 H(g) 19.583838 7.424849 77.992827 -0.005870 -0.007327 -0.005031 0.000000
131 H(g) 19.984677 7.619989 76.989407 0.006839 -0.002935 0.000900 0.000000
132 H(g) -91.330763 26.007659 16.736158 0.001587 0.004813 0.002522 0.000000
133 H(g) -91.272086 26.393860 15.709995 -0.000474 0.002024 0.001355 0.000000
134 H(g) -94.591737 14.188494 46.881669 0.005117 0.001761 0.001225 0.000000
135 H(g) -93.798004 14.854059 47.245831 0.001512 0.005118 0.002947 0.000000
136 H(g) -43.568594 65.083429 23.634824 -0.003105 -0.006516 0.001318 0.000000
137 H(g) -43.188576 64.494797 22.789423 0.001067 -0.005935 0.002789 0.000000
138 H(g) 102.316568 -36.142307 0.172609 0.001812 0.000193 -0.000844 0.000000
139 H(g) 101.892618 -35.339434 0.790076 -0.002104 -0.005516 0.003890 0.000000
140 H(g) 17.915542 69.264497 36.701260 -0.005708 0.003481 -0.005980 0.000000
141 H(g) 18.848132 68.702812 36.844057 -0.007156 0.004872 0.008947 0.000000
142 H(g) 48.777605 -95.526359 -14.176664 0.005293 -0.003729 -0.002307 0.000000
143 H(g) 48.856539 -95.487459 -15.271132 -0.004194 -0.007048 -0.003109 0.000000
144 H(g) -34.230886 -93.999813 8.229591 -0.001695 -0.004572 -0.000091 0.000000
145 H(g) -33.298923 -94.207075 8.771894 0.003726 0.005106 -0.005709 0.000000
146 H(g) 99.912699 -2.320564 59.995013 -0.003231 0.008636 -0.005106 0.000000
147 H(g) 99.739522 -2.144864 61.064939 -0.000676 -0.002766 -0.002820 0.000000
148 H(g) -10.811169 35.706009 41.760525 -0.003558 -0.002052 -0.000691 0.000000
149 H(g) -10.895729 36.742356 42.113284 0.000416 -0.000554 -0.004139 0.000000
150 H(g) -102.187105 -51.387576 -10.118655 -0.001153 -0.010475 -0.003039 0.000000
151 H(g) -102.379565 -51.660261 -9.072612 -0.000335 0.003797 0.000832 0.000000
152 H(g) 32.402168 104.497750 -4.147966 -0.002704 -0.005128 0.005330 0.000000
153 H(g) 31.992088 104.813544 -5.116321 -0.002138 -0.011740 0.002934 0.000000
154 H(g) 19.399677 -49.625372 49.030139 0.003274 0.008292 0.002721 0.000000
155 H(g) 20.089217 -48.971701 49.580461 0.004258 0.007150 0.002846 0.000000
156 H(g) 69.979866 -1.468125 -68.444612 0.000886 0.002233 0.000520 0.000000
157 H(g) 70.418922 -0.538620 -68.058798 0.007015 0.001074 -0.003666 0.000000
158 H(g) -16.304037 34.734552 20.105119 0.006716 -0.006330 0.005806 0.000000
159 H(g) -16.337102 34.638506 21.198411 0.001300 0.001428 0.006323 0.000000
160 H(g) 0.353990 79.643548 -62.958553 0.007577 0.006344 0.003360 0.000000
161 H(g) -0.065224 80.152007 -62.080297 -0.000380 -0.000266 0.003389 0.000000
162 H(g) -53.291221 -77.569932 15.692923 -0.001333 -0.008355 0.005043 0.000000
163 H(g) -52.279937 -77.960470 15.867246 0.000436 -0.003985 0.004576 0.000000
164 H(g) 52.518392 58.468175 -35.884741 0.004516 0.005648 0.001999 0.000000
165 H(g) 52.846112 58.505715 -34.837461 -0.003208 0.002742 0.004520 0.000000
166 H(g) 82.113320 62.380030 50.967987 0.003113 -0.003684 -0.002898 0.000000
167 H(g) 82.536639 62.600686 49.979192 0.000517 -0.000591 -0.003319 0.000000
168 H(g) -80.424718 26.438293 -47.143507 0.005937 0.004956 -0.001773 0.000000
169 H(g) -79.691856 26.249462 -46.347982 -0.000600 0.001756 0.003490 0.000000
170 H(g) -11.811829 61.214418 25.104510 0.003569 -0.004927 0.003921 0.000000
171 H(g) -11.408626 61.597043 26.051416 -0.005797 0.007272 0.002980 0.000000
172 H(g) -9.702461 55.933598 56.480256 0.000088 0.002881 -0.002587 0.000000
173 H(g) -9.295263 56.562333 57.283056 0.002162 -0.001696 -0.000054 0.000000
174 H(g) -6.812298 -77.461494 33.481228 -0.005418 -0.001244 -0.002715 0.000000
175 H(g) -6.650771 -77.723572 34.535186 -0.005299 0.000166 -0.002383 0.000000
176 H(g) -63.484096 -6.565336 80.599287 0.005569 0.005118 -0.002112 0.000000
177 H(g) -63.763544 -6.901433 79.592037 -0.001914 0.004810 0.000067 0.000000
178 H(g) -17.865031 20.812236 69.187742 0.005441 -0.008738 -0.006857 0.000000
179 H(g) -18.019293 21.404504 68.276135 0.001625 -0.000095 -0.000596 0.000000
180 H(g) 53.584744 -19.518623 77.132742 0.000065 -0.003232 -0.001637 0.000000
181 H(g) 52.508518 -19.343840 77.262324 0.001064 0.002015 -0.000418 0.000000
182 H(g) 11.811236 47.062567 45.740050 0.000150 -0.009363 -0.000328 0.000000
183 H(g) 10.835991 47.560211 45.657278 0.005106 -0.000245 -0.003906 0.000000
184 H(g) -86.404822 -41.674507 68.442261 -0.006976 0.004914 0.000892 0.000000
185 H(g) -86.074563 -41.684465 67.395154 -0.003894 0.000875 0.001902 0.000000
186 H(g) 91.722612 28.307555 -35.778423 0.001415 -0.001284 0.000353 0.000000
187 H(g) 91.259220 27.533490 -36.404278 0.003887 -0.000075 -0.002972 0.000000
188 H(g) -34.490235 -12.376383 -73.155628 -0.001465 0.003589 -0.002926 0.000000
189 H(g) -33.723661 -13.106133 -73.447918 -0.003598 0.000186 -0.000024 0.000000
190 H(g) 91.495501 -58.344246 -24.396283 -0.001346 0.005018 -0.002828 0.000000
191 H(g) 91.751536 -58.781506 -23.422192 0.000325 0.000206 -0.005427 0.000000
192 H(g) -76.740714 61.028473 -31.649292 -0.000927 0.003846 0.002457 0.000000
193 H(g) -77.723324 61.473181 -31.855003 -0.002217 -0.002596 -0.005309 0.000000
194 H(g) 24.422293 73.676200 58.955217 0.001828 -0.004749 0.007663 0.000000
195 H(g) 24.297309 73.704472 60.045714 0.002338 0.008896 0.007368 0.000000
196 H(g) 34.023114 85.635488 -58.681349 -0.001101 -0.002254 -0.002361 0.000000
197 H(g) 34.675188 86.019041 -59.477145 -0.006662 0.003309 -0.004237 0.000000
198 H(g) 61.483066 -31.220281 -4.985002 0.003952 -0.001317 0.000581 0.000000
199 H(g) 61.208390 -31.655009 -4.014864 -0.000557 0.001373 0.000510 0.000000
200 H(g) -92.357170 -47.543264 57.525465 -0.004528 0.004864 0.005074 0.000000
201 H(g) -91.890343 -46.568456 57.718923 -0.000033 0.003713 0.000033 0.000000
202 H(g) -19.601511 -32.792324 -10.954730 -0.000862 -0.010954 0.003089 0.000000
203 H(g) -19.573221 -32.350432 -9.949974 0.000774 -0.004772 0.000325 0.000000
204 H(g) -106.737626 4.814667 1.472513 -0.001703 0.000806 -0.002213 0.000000
205 H(g) -106.741908 4.830554 0.374636 -0.000329 -0.005062 -0.002303 0.000000
206 H(g) 70.026926 25.202625 -5.584989 0.007933 -0.004256 -0.001504 0.000000
207 H(g) 70.082263 24.118587 -5.419444 -0.003506 -0.004011 0.003921 0.000000
208 H(g) -38.115346 35.372267 14.287202 0.004901 0.001066 0.003132 0.000000
209 H(g) -38.014592 34.374448 14.734202 -0.003022 -0.000140 0.002227 0.000000
210 H(g) -108.461350 -36.212475 16.788698 0.000565 -0.005441 0.002690 0.000000
211 H(g) -109.410502 -36.542352 16.346098 -0.001952 0.007179 -0.001316 0.000000
212 H(g) -42.985314 -63.785012 -41.544453 -0.002953 -0.000370 -0.000894 0.000000
213 H(g) -43.028824 -63.959047 -40.461206 0.002670 0.002181 -0.000258 0.000000
214 H(g) -54.378544 100.280706 9.540591 -0.001228 -0.000112 0.002568 0.000000
215 H(g) -53.700382 100.948042 8.992537 -0.002451 0.003349 0.005270 0.000000
216 H(g) -46.240236 4.159933 107.850547 -0.003425 0.001999 0.003298 0.000000
217 H(g) -46.124902 4.245621 106.761988 -0.004449 0.005563 0.003470 0.000000
218 H(g) 58.077657 -44.111380 90.121924 0.000653 -0.003671 0.004961 0.000000
219 H(g) 58.644516 -44.758837 89.439960 -0.000826 0.000598 -0.000321 0.000000
220 H(g) -20.396288 -48.636363 -52.568388 -0.000986 -0.003490 0.003246 0.000000
221 H(g) -20.297543 -48.156119 -51.585932 0.000823 -0.006068 0.004325 0.000000
222 H(g) -77.544470 -12.725023 -10.476089 0.002850 0.003378 0.006606 0.000000
223 H(g) -78.275976 -11.907104 -10.437212 0.006507 0.006854 0.002298 0.000000
224 H(g) 16.871026 -65.423696 46.644005 -0.001523 -0.010274 0.000055 0.000000
225 H(g) 17.498674 -65.691616 47.504167 0.002926 0.002156 0.000680 0.000000
226 H(g) 74.493933 -74.338932 -4.390383 0.002225 -0.001921 0.009180 0.000000
227 H(g) 74.277820 -74.035771 -3.357430 0.004645 0.001597 0.008654 0.000000
228 H(g) 16.469397 -73.003976 -22.921380 0.001300 0.001938 0.002198 0.000000
229 H(g) 17.234881 -73.500862 -23.531907 -0.000794 -0.000406 0.001479 0.000000
230 H(g) -29.996985 74.967049 -32.067784 0.000114 -0.001950 -0.004841 0.000000
231 H(g) -29.997011 74.970767 -33.165778 0.005735 -0.003693 -0.004847 0.000000
232 H(g) -20.433041 -80.847992 53.692357 0.001800 0.007540 0.002424 0.000000
233 H(g) -19.590609 -80.374578 54.213693 0.003621 0.000896 0.005514 0.000000
234 H(g) 11.549509 54.580916 -60.084466 0.005087 0.000039 0.005490 0.000000
235 H(g) 10.966702 54.108406 -59.282796 0.001837 -0.004595 0.000397 0.000000
236 H(g) -106.247562 48.322371 -11.629651 -0.007707 -0.002620 -0.001177 0.000000
237 H(g) -107.171271 48.609812 -12.149020 -0.009692 -0.000812 0.003354 0.000000
238 H(g) 0.184664 63.553949 4.503387 -0.004428 0.001965 0.012690 0.000000
239 H(g) 1.001593 64.184502 4.878396 0.002914 -0.000886 0.001489 0.000000
240 H(g) -108.442214 -40.960951 17.797076 0.001136 -0.009299 -0.005068 0.000000
241 H(g) -107.441181 -41.062589 18.236629 -0.000169 -0.007880 -0.001767 0.000000
242 H(g) 21.447039 -74.240680 -57.943444 -0.003725 0.005405 0.004835 0.000000
243 H(g) 20.547806 -74.297953 -57.315985 -0.006283 0.007335 0.001346 0.000000
244 H(g) 102.227664 13.692973 -5.561744 -0.004409 -0.000022 0.000647 0.000000
245 H(g) 102.485323 14.727516 -5.824298 0.003605 -0.002515 -0.001312 0.000000
246 H(g) -74.818190 -37.834579 57.865593 0.005096 -0.001299 0.009143 0.000000
247 H(g) -74.848263 -36.741401 57.767301 -0.000921 -0.002424 -0.001529 0.000000
248 H(g) -66.231861 66.023923 15.454579 0.006673 -0.004298 -0.000524 0.000000
249 H(g) -66.113721 66.295067 14.397164 0.000675 0.004579 0.001082 0.000000
250 H(g) 48.178801 35.045697 -45.845665 0.002293 -0.001768 -0.002812 0.000000
251 H(g) 48.917757 35.752786 -46.245132 0.001480 0.000267 -0.000714 0.000000
252 H(g) 1.099586 -109.297583 43.777860 -0.004778 0.004762 -0.002014 0.000000
253 H(g) 0.613648 -108.761939 42.951692 -0.004920 -0.002091 -0.006374 0.000000
254 H(g) -112.319847 -4.232239 34.776078 -0.007668 0.000337 0.000294 0.000000
255 H(g) -111.870320 -3.679741 33.940449 -0.006269 -0.001082 0.000108 0.000000
256 H(g) -35.527226 -87.078314 48.311815 -0.001892 -0.005913 0.000839 0.000000
257 H(g) -36.029560 -86.990442 49.284205 0.003972 0.004713 0.002909 0.000000
258 H(g) -110.642330 -22.627520 34.966029 0.004355 0.000911 -0.000246 0.000000
259 H(g) -111.650222 -22.947949 34.670930 0.007636 -0.003824 -0.006312 0.000000
260 H(g) 82.860795 12.408732 -5.714740 0.004780 0.001043 -0.005371 0.000000
261 H(g) 82.855053 12.400528 -6.812694 0.003122 0.002551 -0.005373 0.000000
262 H(g) -8.892353 27.984027 16.839157 -0.000027 0.002427 -0.001331 0.000000
263 H(g) -9.349652 28.938556 16.547000 -0.002567 0.001429 -0.000613 0.000000
264 H(g) 58.554919 68.198898 63.292683 -0.007257 -0.003312 0.002456 0.000000
265 H(g) 57.596070 67.760289 62.986360 -0.005726 -0.004091 -0.001222 0.000000
266 H(g) -49.274349 102.040785 -9.562823 0.002932 0.001760 0.001264 0.000000
267 H(g) -48.944384 101.637421 -8.596374 0.009369 0.005662 0.000694 0.000000
268 H(g) 35.870453 -22.645330 -105.407850 -0.006513 -0.003723 0.001814 0.000000
269 H(g) 36.164732 -22.742080 -106.461246 -0.003087 0.006455 0.001836 0.000000
270 H(g) 44.775381 11.491356 -106.593321 -0.003105 0.004002 -0.010702 0.000000
271 H(g) 44.266044 12.447725 -106.415733 -0.001989 0.001798 0.004367 0.000000
272 H(g) -12.898493 116.308564 -5.531013 -0.000322 0.003582 0.002784 0.000000
273 H(g) -12.766764 116.019702 -6.582113 -0.002368 -0.003044 0.004349 0.000000
274 H(g) 76.556592 -66.494225 39.947721 0.001572 0.002827 -0.000069 0.000000
275 H(g) 76.602493 -66.810471 38.897252 0.002398 -0.002094 0.001449 0.000000
276 H(g) 88.761415 45.403802 5.904444 0.001211 -0.002264 0.004440 0.000000
277 H(g) 89.082448 45.549242 6.944343 -0.003482 0.008252 0.004418 0.000000
278 H(g) -48.539781 -77.184329 -70.768834 0.001724 0.008975 -0.000576 0.000000
279 H(g) -48.827545 -77.047744 -69.718053 -0.003923 -0.000384 -0.000906 0.000000
280 H(g) -34.204624 16.122649 -1.553901 0.008991 0.009008 0.001000 0.000000
281 H(g) -34.924896 16.266307 -0.737705 0.005647 0.008077 -0.001788 0.000000
282 H(g) 51.806252 41.548858 -99.244466 0.000604 -0.001722 -0.003194 0.000000
283 H(g) 51.143541 42.398041 -99.457320 0.001638 0.001377 0.005955 0.000000
284 H(g) -38.768408 -75.944064 -57.704551 0.001792 0.003892 -0.002688 0.000000
285 H(g) -39.541563 -75.560782 -58.383469 -0.007207 -0.000710 0.004962 0.000000
286 H(g) 39.078341 -64.830468 1.530447 -0.007644 0.000004 0.004505 0.000000
287 H(g) 39.324615 -64.156600 2.361624 -0.005284 0.003401 0.001052 0.000000
288 H(g) -93.414397 -19.219147 -61.941180 -0.004932 0.004149 0.003070 0.000000
289 H(g) -93.441968 -19.195992 -63.038589 0.000389 0.005736 0.002970 0.000000
290 H(g) -78.235078 69.903932 21.885891 -0.002746 0.004234 0.005162 0.000000
291 H(g) -78.358767 70.054300 20.805292 -0.004508 0.001914 0.005041 0.000000
292 H(g) -2.805381 -107.331533 -33.834538 0.004518 0.005293 0.009064 0.000000
293 H(g) -2.132575 -108.197226 -33.775290 -0.006968 -0.004150 0.001523 0.000000
294 H(g) -8.130763 -78.347392 -4.498458 -0.001504 -0.000650 0.004042 0.000000
295 H(g) -8.172383 -77.332179 -4.082268 -0.000303 0.000102 0.002329 0.000000
296 H(g) -21.592446 -99.290781 46.270535 -0.002677 -0.004134 -0.000402 0.000000
297 H(g) -21.344402 -100.357675 46.194267 0.003695 -0.002693 0.000175 0.000000
298 H(g) 39.392228 31.044691 94.394848 0.001068 -0.007315 -0.000751 0.000000
299 H(g) 39.045226 30.853553 93.370807 0.000980 -0.003499 -0.001433 0.000000
300 H(g) 5.039154 -35.179092 105.715270 -0.007895 0.002225 0.004489 0.000000
301 H(g) 4.677946 -35.794293 106.549932 -0.010298 -0.004452 -0.001473 0.000000
302 H(g) 22.497432 70.726428 79.629190 0.001704 -0.001311 -0.001539 0.000000
303 H(g) 22.804986 71.612792 79.058776 0.000591 0.004069 0.006221 0.000000
304 H(g) -45.016589 -66.441199 29.981225 0.002573 -0.001834 -0.001711 0.000000
305 H(g) -45.435314 -67.168538 29.273234 -0.003327 -0.002986 0.002961 0.000000
306 H(g) -37.484644 54.271574 78.101998 -0.001748 0.004221 -0.001365 0.000000
307 H(g) -37.575921 54.359459 79.192663 -0.004330 0.002553 -0.001447 0.000000
308 H(g) 9.378768 -22.222284 -47.146479 0.002441 -0.002687 -0.000431 0.000000
309 H(g) 10.314054 -22.470968 -47.665131 0.003289 -0.002235 0.000883 0.000000
310 H(g) 9.380405 60.138502 -27.192751 0.004755 0.002533 -0.003097 0.000000
311 H(g) 9.447389 60.031063 -28.283427 0.002263 0.003386 -0.003334 0.000000
312 H(g) 41.163297 -53.619251 75.146719 -0.000078 0.002515 0.003345 0.000000
313 H(g) 40.409537 -53.690677 74.351515 -0.000530 -0.001724 0.004155 0.000000
314 H(g) -4.384297 -58.840995 47.215002 -0.000585 0.000989 -0.001956 0.000000
315 H(g) -4.183955 -57.761603 47.234543 -0.000824 0.001026 -0.001577 0.000000
316 H(g) -101.209468 -2.258089 14.988308 -0.005245 0.002466 -0.001689 0.000000
317 H(g) -100.612067 -1.658885 15.688073 -0.002408 -0.003741 0.001204 0.000000
318 H(g) 16.927876 6.556189 -9.821512 0.002995 0.007382 0.003686 0.000000
319 H(g) 16.571368 6.295981 -10.826897 0.005581 0.003651 0.003735 0.000000
320 H(g) -5.191740 75.011780 -69.822732 0.008877 -0.005316 0.001150 0.000000
321 H(g) -5.915766 74.186541 -69.803451 0.002233 0.000511 0.001082 0.000000
322 H(g) 94.937207 63.233391 27.897515 0.007759 0.000292 -0.002047 0.000000
323 H(g) 94.611931 63.330403 26.853298 -0.003521 -0.003375 0.001126 0.000000
324 H(g) -77.709331 14.494745 -4.083395 -0.000112 0.002373 -0.002415 0.000000
325 H(g) -77.861168 15.372114 -3.440921 0.002380 0.004908 -0.005288 0.000000
326 H(g) -100.371951 0.623307 -24.261897 -0.002154 -0.000630 0.000264 0.000000
327 H(g) -99.792745 0.073216 -23.508555 0.003191 0.007555 0.002132 0.000000
328 H(g) 20.737795 97.225399 1.846621 -0.002071 -0.000841 -0.003670 0.000000
329 H(g) 20.384310 98.261146 1.757851 -0.007048 -0.001745 0.005603 0.000000
330 H(g) 27.431981 -68.693537 -42.058138 0.004902 0.009033 0.004748 0.000000
331 H(g) 27.405237 -68.898010 -40.979677 -0.004271 -0.002469 0.002339 0.000000
332 H(g) 36.101391 14.297837 108.367882 -0.006093 0.002652 0.000967 0.000000
333 H(g) 35.221737 13.777854 107.966097 -0.002134 -0.009397 0.007894 0.000000
334 H(g) -19.625446 -50.060865 -75.841608 -0.000217 -0.002988 0.001028 0.000000
335 H(g) -19.770422 -50.223235 -76.917815 -0.005066 -0.004691 0.001938 0.000000
336 H(g) -12.947103 -66.461151 31.346996 -0.001040 0.003006 -0.005533 0.000000
337 H(g) -13.130009 -67.332626 30.704594 -0.000773 0.000848 -0.002680 0.000000
338 H(g) -106.144968 -11.195899 -10.075889 0.001249 -0.001164 -0.001292 0.000000
339 H(g) -105.924667 -11.545302 -9.058545 0.001596 0.008814 0.002060 0.000000
340 H(g) 69.246711 6.938779 16.557467 -0.006238 0.001767 0.000829 0.000000
341 H(g) 69.614373 7.805012 17.123215 -0.001583 0.000020 0.000479 0.000000
342 H(g) 3.030342 -105.302372 -1.186597 0.003901 0.001827 -0.001373 0.000000
343 H(g) 2.289979 -105.513784 -1.969394 0.000791 -0.002605 0.002766 0.000000
344 H(g) 14.471895 46.965217 -30.708840 0.000225 0.003770 0.001535 0.000000
345 H(g) 14.061645 46.742703 -29.714965 -0.004409 -0.003522 -0.002011 0.000000
346 H(g) -12.614620 -107.453734 14.252856 0.007451 -0.004262 0.004385 0.000000
347 H(g) -12.513006 -107.483231 13.159966 0.006127 0.006295 0.003977 0.000000
348 H(g) 39.944150 -22.526521 100.693923 0.005426 -0.004120 0.003094 0.000000
349 H(g) 39.816432 -23.038152 101.657005 0.007089 0.000030 0.005519 0.000000
350 H(g) 34.492831 42.393760 95.509312 -0.000547 -0.001547 0.003536 0.000000
351 H(g) 34.623527 42.726312 96.547547 -0.001176 0.007679 0.000660 0.000000
352 H(g) -34.703107 -72.495237 -11.263492 -0.002989 0.004604 -0.003505 0.000000
353 H(g) -34.979355 -72.572453 -10.203620 0.002739 -0.001311 -0.002443 0.000000
354 H(g) -105.642501 25.950461 -32.124375 0.000975 0.002806 -0.011703 0.000000
355 H(g) -105.384005 25.901407 -31.058365 -0.000048 0.001732 -0.011504 0.000000
356 C(v) 48.032528 -38.246962 -3.454061 -0.001281 -0.003145 -0.000186 0.000000
357 O(v) 47.517704 -37.959400 -2.185369 -0.001281 -0.003145 -0.000186 0.000000
358 H(v) 48.153490 -38.197251 -1.526090 -0.001281 -0.003145 -0.000186 0.000000
359 H(v) 47.280932 -37.962193 -4.176669 -0.001281 -0.003145 -0.000186 0.000000
360 H(v) 48.244397 -39.305857 -3.578342 -0.001281 -0.003145 -0.000186 0.000000
361 H(v) 48.939775 -37.683773 -3.663571 -0.001281 -0.003145 -0.000186 0.000000
362 C(v) 30.502149 -3.809131 86.190752 0.002588 0.002464 -0.000714 0.000000
363 O(v) 29.564189 -4.823720 85.971310 0.002588 0.002464 -0.000714 0.000000
364 H(v) 28.792314 -4.657306 86.492810 0.002588 0.002464 -0.000714 0.000000
365 H(v) 31.365233 -4.033450 85.580080 0.002588 0.002464 -0.000714 0.000000
366 H(v) 30.819100 -3.763785 87.229539 0.002588 0.002464 -0.000714 0.000000
367 H(v) 30.121726 -2.831879 85.900182 0.002588 0.002464 -0.000714 0.000000
368 C(v) -16.784136 -113.276631 -7.698105 0.002663 -0.000482 0.002511 0.000000
369 O(v) -17.592136 -112.244189 -8.186484 0.002663 -0.000482 0.002511 0.000000
370 H(v) -17.482651 -111.475668 -7.645342 0.002663 -0.000482 0.002511 0.000000
371 H(v) -16.935939 -114.132895 -8.339916 0.002663 -0.000482 0.002511 0.000000
372 H(v) -17.050167 -113.557617 -6.682297 0.002663 -0.000482 0.002511 0.000000
373 H(v) -15.728299 -113.014244 -7.721229 0.002663 -0.000482 0.002511 0.000000
374 C(v) 64.555168 -42.323687 -50.422585 -0.001117 0.000977 -0.003606 0.000000
375 O(v) 65.778581 -43.000154 -50.368113 -0.001117 0.000977 -0.003606 0.000000
376 H(v) 65.956356 -43.397774 -51.208196 -0.001117 0.000977 -0.003606 0.000000
377 H(v) 64.388461 -41.884623 -49.449146 -0.001117 0.000977 -0.003606 0.000000
378 H(v) 63.727825 -42.993283 -50.643351 -0.001117 0.000977 -0.003606 0.000000
379 H(v) 64.563015 -41.525032 -51.161680 -0.001117 0.000977 -0.003606 0.000000
380 C(v) -76.104679 -69.737928 -10.294686 0.005000 0.004086 0.004573 0.000000
381 O(v) -77.228860 -69.121739 -10.854902 0.005000 0.004086 0.004573 0.000000
382 H(v) -77.172782 -68.186100 -10.724984 0.005000 0.004086 0.004573 0.000000
383 H(v) -76.204843 -70.800815 -10.463186 0.005000 0.004086 0.004573 0.000000
384 H(v) -76.035556 -69.565199 -9.223715 0.005000 0.004086 0.004573 0.000000